# vtk DataFile Version 3.0
2D FDTD Analysis Results - Meep Simulation
ASCII
DATASET STRUCTURED_POINTS
DIMENSIONS 400 150 1
ORIGIN -8.0 -3.0 0.0
SPACING 0.04 0.04 1.0
POINT_DATA 60000
SCALARS E_magnitude float 1
LOOKUP_TABLE default
0.001121
0.002393
0.003508
0.004426
0.004491
0.004311
0.004290
0.003755
0.004090
0.005890
0.008393
0.011396
0.015306
0.019880
0.024369
0.028937
0.033982
0.038844
0.042716
0.045871
0.048978
0.052096
0.054837
0.056943
0.058495
0.059776
0.060974
0.062114
0.063196
0.064219
0.065182
0.066085
0.066927
0.067709
0.068430
0.069089
0.069686
0.070221
0.070696
0.071109
0.071461
0.071753
0.071985
0.072157
0.072269
0.072322
0.072317
0.072255
0.072136
0.071962
0.071732
0.071447
0.071109
0.070719
0.070277
0.069785
0.069244
0.068654
0.068017
0.067335
0.066608
0.065838
0.065026
0.064174
0.063283
0.062354
0.061389
0.060389
0.059355
0.058289
0.057193
0.056068
0.054916
0.053737
0.052534
0.051308
0.050059
0.048790
0.047502
0.046196
0.044874
0.043536
0.042185
0.040821
0.039446
0.038062
0.036669
0.035269
0.033863
0.032453
0.031040
0.029625
0.028210
0.026795
0.025382
0.023973
0.022568
0.021168
0.019776
0.018392
0.017017
0.015654
0.014303
0.012965
0.011643
0.010336
0.009047
0.007777
0.006527
0.005302
0.004104
0.002943
0.001849
0.000974
0.001043
0.001915
0.002919
0.003932
0.004931
0.005908
0.006859
0.007782
0.008676
0.009538
0.010369
0.011167
0.011932
0.012663
0.013359
0.014020
0.014646
0.015236
0.015789
0.016306
0.016786
0.017229
0.017634
0.018001
0.018328
0.018617
0.018866
0.019075
0.019242
0.019369
0.019453
0.019494
0.019492
0.019446
0.019356
0.019220
0.019039
0.018814
0.018543
0.018228
0.017870
0.017471
0.017034
0.016562
0.016058
0.015529
0.014978
0.014410
0.013827
0.013233
0.012625
0.012002
0.011359
0.010692
0.009993
0.009261
0.008490
0.007679
0.006827
0.005935
0.005006
0.004043
0.003050
0.002032
0.000996
0.000074
0.001111
0.002165
0.003212
0.004244
0.005256
0.006241
0.007191
0.008102
0.008966
0.009779
0.010535
0.011230
0.011860
0.012419
0.012906
0.013316
0.013647
0.013897
0.014064
0.014149
0.014149
0.014064
0.013897
0.013647
0.013316
0.012906
0.012419
0.011860
0.011230
0.010535
0.009779
0.008966
0.008102
0.007191
0.006241
0.005256
0.004244
0.003212
0.002165
0.001111
0.000074
0.000996
0.002032
0.003050
0.004043
0.005006
0.005935
0.006827
0.007679
0.008490
0.009261
0.009993
0.010692
0.011359
0.012002
0.012625
0.013233
0.013827
0.014410
0.014978
0.015529
0.016058
0.016562
0.017034
0.017471
0.017870
0.018228
0.018543
0.018814
0.019039
0.019220
0.019356
0.019446
0.019492
0.019494
0.019453
0.019369
0.019242
0.019075
0.018866
0.018617
0.018328
0.018001
0.017634
0.017229
0.016786
0.016306
0.015789
0.015236
0.014646
0.014020
0.013359
0.012663
0.011932
0.011167
0.010369
0.009538
0.008676
0.007782
0.006859
0.005908
0.004931
0.003932
0.002919
0.001915
0.001043
0.000974
0.001849
0.002943
0.004104
0.005302
0.006527
0.007777
0.009047
0.010336
0.011643
0.012965
0.014303
0.015654
0.017017
0.018392
0.019776
0.021168
0.022568
0.023973
0.025382
0.026795
0.028210
0.029625
0.031040
0.032453
0.033863
0.035269
0.036669
0.038062
0.039446
0.040821
0.042185
0.043536
0.044874
0.046196
0.047502
0.048790
0.050059
0.051308
0.052534
0.053737
0.054916
0.056068
0.057193
0.058289
0.059355
0.060389
0.061389
0.062354
0.063283
0.064174
0.065026
0.065838
0.066608
0.067335
0.068017
0.068654
0.069244
0.069785
0.070277
0.070719
0.071109
0.071447
0.071732
0.071962
0.072136
0.072255
0.072317
0.072322
0.072269
0.072157
0.071985
0.071753
0.071461
0.071109
0.070696
0.070221
0.069686
0.069089
0.068430
0.067709
0.066927
0.066085
0.065182
0.064219
0.063196
0.062114
0.060974
0.059776
0.058495
0.056943
0.054837
0.052096
0.048978
0.045871
0.042716
0.038844
0.033982
0.028937
0.024369
0.019880
0.015306
0.011396
0.008393
0.005890
0.004090
0.003755
0.004290
0.004311
0.004491
0.004426
0.003508
0.002393
0.001121
0.002099
0.002986
0.005901
0.009754
0.011121
0.011496
0.012612
0.011031
0.009818
0.010165
0.010161
0.012001
0.015651
0.019934
0.024362
0.028933
0.033971
0.038862
0.042795
0.045928
0.048986
0.052088
0.054829
0.056944
0.058502
0.059781
0.060977
0.062115
0.063194
0.064215
0.065175
0.066076
0.066917
0.067696
0.068415
0.069072
0.069667
0.070201
0.070673
0.071085
0.071436
0.071726
0.071956
0.072127
0.072238
0.072290
0.072284
0.072220
0.072100
0.071925
0.071694
0.071409
0.071070
0.070679
0.070236
0.069744
0.069202
0.068612
0.067975
0.067292
0.066565
0.065795
0.064983
0.064131
0.063240
0.062311
0.061346
0.060347
0.059313
0.058248
0.057153
0.056029
0.054877
0.053700
0.052498
0.051273
0.050026
0.048759
0.047472
0.046168
0.044848
0.043513
0.042164
0.040803
0.039431
0.038050
0.036661
0.035265
0.033863
0.032458
0.031050
0.029640
0.028231
0.026823
0.025417
0.024015
0.022619
0.021229
0.019847
0.018476
0.017115
0.015768
0.014435
0.013120
0.011823
0.010548
0.009298
0.008078
0.006895
0.005761
0.004697
0.003742
0.002978
0.002548
0.002591
0.003059
0.003777
0.004609
0.005489
0.006382
0.007272
0.008147
0.009003
0.009835
0.010640
0.011417
0.012163
0.012878
0.013560
0.014208
0.014823
0.015402
0.015946
0.016454
0.016926
0.017361
0.017759
0.018119
0.018441
0.018724
0.018967
0.019170
0.019333
0.019455
0.019534
0.019572
0.019565
0.019515
0.019420
0.019281
0.019095
0.018865
0.018589
0.018268
0.017903
0.017496
0.017050
0.016567
0.016052
0.015511
0.014948
0.014370
0.013780
0.013181
0.012572
0.011950
0.011311
0.010649
0.009958
0.009232
0.008467
0.007661
0.006814
0.005926
0.005000
0.004039
0.003048
0.002034
0.001003
0.000158
0.001121
0.002171
0.003217
0.004249
0.005261
0.006245
0.007196
0.008106
0.008971
0.009784
0.010541
0.011236
0.011866
0.012426
0.012912
0.013322
0.013653
0.013904
0.014071
0.014155
0.014155
0.014071
0.013904
0.013653
0.013322
0.012912
0.012426
0.011866
0.011236
0.010541
0.009784
0.008971
0.008106
0.007196
0.006245
0.005261
0.004249
0.003217
0.002171
0.001121
0.000158
0.001003
0.002034
0.003048
0.004039
0.005000
0.005926
0.006814
0.007661
0.008467
0.009232
0.009958
0.010649
0.011311
0.011950
0.012572
0.013181
0.013780
0.014370
0.014948
0.015511
0.016052
0.016567
0.017050
0.017496
0.017903
0.018268
0.018589
0.018865
0.019095
0.019281
0.019420
0.019515
0.019565
0.019572
0.019534
0.019455
0.019333
0.019170
0.018967
0.018724
0.018441
0.018119
0.017759
0.017361
0.016926
0.016454
0.015946
0.015402
0.014823
0.014208
0.013560
0.012878
0.012163
0.011417
0.010640
0.009835
0.009003
0.008147
0.007272
0.006382
0.005489
0.004609
0.003777
0.003059
0.002591
0.002548
0.002978
0.003742
0.004697
0.005761
0.006895
0.008078
0.009298
0.010548
0.011823
0.013120
0.014435
0.015768
0.017115
0.018476
0.019847
0.021229
0.022619
0.024015
0.025417
0.026823
0.028231
0.029640
0.031050
0.032458
0.033863
0.035265
0.036661
0.038050
0.039431
0.040803
0.042164
0.043513
0.044848
0.046168
0.047472
0.048759
0.050026
0.051273
0.052498
0.053700
0.054877
0.056029
0.057153
0.058248
0.059313
0.060347
0.061346
0.062311
0.063240
0.064131
0.064983
0.065795
0.066565
0.067292
0.067975
0.068612
0.069202
0.069744
0.070236
0.070679
0.071070
0.071409
0.071694
0.071925
0.072100
0.072220
0.072284
0.072290
0.072238
0.072127
0.071956
0.071726
0.071436
0.071085
0.070673
0.070201
0.069667
0.069072
0.068415
0.067696
0.066917
0.066076
0.065175
0.064215
0.063194
0.062115
0.060977
0.059781
0.058502
0.056944
0.054829
0.052088
0.048986
0.045928
0.042795
0.038862
0.033971
0.028933
0.024362
0.019934
0.015651
0.012001
0.010161
0.010165
0.009818
0.011031
0.012612
0.011496
0.011121
0.009754
0.005901
0.002986
0.002099
0.003265
0.003911
0.008930
0.015681
0.018170
0.018940
0.020970
0.018340
0.015981
0.015502
0.012989
0.013126
0.016319
0.020043
0.024348
0.028923
0.033951
0.038897
0.042951
0.046041
0.049002
0.052071
0.054815
0.056946
0.058516
0.059793
0.060984
0.062116
0.063191
0.064206
0.065162
0.066059
0.066895
0.067671
0.068385
0.069038
0.069630
0.070160
0.070629
0.071037
0.071385
0.071672
0.071900
0.072067
0.072176
0.072225
0.072217
0.072151
0.072029
0.071851
0.071618
0.071331
0.070991
0.070599
0.070155
0.069661
0.069118
0.068527
0.067889
0.067206
0.066478
0.065708
0.064896
0.064044
0.063154
0.062225
0.061261
0.060262
0.059230
0.058166
0.057072
0.055950
0.054800
0.053625
0.052425
0.051203
0.049959
0.048695
0.047413
0.046112
0.044797
0.043466
0.042122
0.040767
0.039401
0.038027
0.036645
0.035257
0.033864
0.032468
0.031069
0.029671
0.028273
0.026878
0.025486
0.024100
0.022721
0.021350
0.019990
0.018642
0.017309
0.015993
0.014697
0.013423
0.012176
0.010959
0.009781
0.008650
0.007578
0.006585
0.005701
0.004969
0.004446
0.004193
0.004238
0.004555
0.005075
0.005729
0.006462
0.007238
0.008034
0.008833
0.009625
0.010404
0.011164
0.011902
0.012614
0.013298
0.013954
0.014578
0.015170
0.015729
0.016255
0.016746
0.017202
0.017623
0.018007
0.018354
0.018664
0.018935
0.019168
0.019361
0.019514
0.019627
0.019698
0.019726
0.019712
0.019654
0.019551
0.019403
0.019209
0.018970
0.018683
0.018350
0.017972
0.017549
0.017084
0.016580
0.016042
0.015477
0.014890
0.014290
0.013683
0.013073
0.012461
0.011843
0.011214
0.010564
0.009886
0.009173
0.008421
0.007626
0.006788
0.005908
0.004988
0.004032
0.003046
0.002037
0.001017
0.000251
0.001142
0.002184
0.003227
0.004258
0.005270
0.006254
0.007205
0.008116
0.008981
0.009795
0.010552
0.011248
0.011878
0.012438
0.012925
0.013335
0.013667
0.013917
0.014085
0.014169
0.014169
0.014085
0.013917
0.013667
0.013335
0.012925
0.012438
0.011878
0.011248
0.010552
0.009795
0.008981
0.008116
0.007205
0.006254
0.005270
0.004258
0.003227
0.002184
0.001142
0.000251
0.001017
0.002037
0.003046
0.004032
0.004988
0.005908
0.006788
0.007626
0.008421
0.009173
0.009886
0.010564
0.011214
0.011843
0.012461
0.013073
0.013683
0.014290
0.014890
0.015477
0.016042
0.016580
0.017084
0.017549
0.017972
0.018350
0.018683
0.018970
0.019209
0.019403
0.019551
0.019654
0.019712
0.019726
0.019698
0.019627
0.019514
0.019361
0.019168
0.018935
0.018664
0.018354
0.018007
0.017623
0.017202
0.016746
0.016255
0.015729
0.015170
0.014578
0.013954
0.013298
0.012614
0.011902
0.011164
0.010404
0.009625
0.008833
0.008034
0.007238
0.006462
0.005729
0.005075
0.004555
0.004238
0.004193
0.004446
0.004969
0.005701
0.006585
0.007578
0.008650
0.009781
0.010959
0.012176
0.013423
0.014697
0.015993
0.017309
0.018642
0.019990
0.021350
0.022721
0.024100
0.025486
0.026878
0.028273
0.029671
0.031069
0.032468
0.033864
0.035257
0.036645
0.038027
0.039401
0.040767
0.042122
0.043466
0.044797
0.046112
0.047413
0.048695
0.049959
0.051203
0.052425
0.053625
0.054800
0.055950
0.057072
0.058166
0.059230
0.060262
0.061261
0.062225
0.063154
0.064044
0.064896
0.065708
0.066478
0.067206
0.067889
0.068527
0.069118
0.069661
0.070155
0.070599
0.070991
0.071331
0.071618
0.071851
0.072029
0.072151
0.072217
0.072225
0.072176
0.072067
0.071900
0.071672
0.071385
0.071037
0.070629
0.070160
0.069630
0.069038
0.068385
0.067671
0.066895
0.066059
0.065162
0.064206
0.063191
0.062116
0.060984
0.059793
0.058516
0.056946
0.054815
0.052071
0.049002
0.046041
0.042951
0.038897
0.033951
0.028923
0.024348
0.020043
0.016319
0.013126
0.012989
0.015502
0.015981
0.018340
0.020970
0.018940
0.018170
0.015681
0.008930
0.003911
0.003265
0.004468
0.004988
0.012121
0.021707
0.025270
0.026403
0.029310
0.025634
0.022203
0.021098
0.016329
0.014648
0.017271
0.020205
0.024327
0.028909
0.033920
0.038949
0.043184
0.046210
0.049027
0.052045
0.054793
0.056949
0.058537
0.059810
0.060993
0.062118
0.063185
0.064194
0.065143
0.066033
0.066863
0.067632
0.068340
0.068988
0.069574
0.070099
0.070563
0.070966
0.071309
0.071592
0.071815
0.071978
0.072082
0.072128
0.072116
0.072046
0.071921
0.071740
0.071505
0.071215
0.070873
0.070478
0.070033
0.069537
0.068992
0.068400
0.067761
0.067077
0.066349
0.065578
0.064766
0.063914
0.063024
0.062097
0.061134
0.060136
0.059105
0.058043
0.056952
0.055831
0.054685
0.053512
0.052317
0.051098
0.049859
0.048600
0.047323
0.046029
0.044720
0.043396
0.042060
0.040714
0.039357
0.037992
0.036621
0.035245
0.033864
0.032482
0.031099
0.029717
0.028337
0.026961
0.025590
0.024227
0.022874
0.021532
0.020203
0.018890
0.017597
0.016326
0.015081
0.013866
0.012686
0.011549
0.010464
0.009443
0.008500
0.007657
0.006941
0.006381
0.006010
0.005850
0.005903
0.006151
0.006558
0.007085
0.007696
0.008361
0.009058
0.009772
0.010491
0.011205
0.011908
0.012595
0.013262
0.013906
0.014525
0.015116
0.015678
0.016209
0.016709
0.017176
0.017610
0.018010
0.018374
0.018703
0.018995
0.019250
0.019467
0.019646
0.019785
0.019884
0.019942
0.019959
0.019933
0.019863
0.019749
0.019590
0.019384
0.019131
0.018830
0.018481
0.018083
0.017638
0.017146
0.016610
0.016037
0.015432
0.014806
0.014170
0.013534
0.012906
0.012289
0.011677
0.011062
0.010432
0.009776
0.009085
0.008352
0.007575
0.006751
0.005882
0.004971
0.004023
0.003043
0.002041
0.001037
0.000343
0.001170
0.002202
0.003241
0.004271
0.005283
0.006267
0.007219
0.008130
0.008996
0.009811
0.010569
0.011265
0.011896
0.012457
0.012944
0.013355
0.013687
0.013938
0.014106
0.014190
0.014190
0.014106
0.013938
0.013687
0.013355
0.012944
0.012457
0.011896
0.011265
0.010569
0.009811
0.008996
0.008130
0.007219
0.006267
0.005283
0.004271
0.003241
0.002202
0.001170
0.000343
0.001037
0.002041
0.003043
0.004023
0.004971
0.005882
0.006751
0.007575
0.008352
0.009085
0.009776
0.010432
0.011062
0.011677
0.012289
0.012906
0.013534
0.014170
0.014806
0.015432
0.016037
0.016610
0.017146
0.017638
0.018083
0.018481
0.018830
0.019131
0.019384
0.019590
0.019749
0.019863
0.019933
0.019959
0.019942
0.019884
0.019785
0.019646
0.019467
0.019250
0.018995
0.018703
0.018374
0.018010
0.017610
0.017176
0.016709
0.016209
0.015678
0.015116
0.014525
0.013906
0.013262
0.012595
0.011908
0.011205
0.010491
0.009772
0.009058
0.008361
0.007696
0.007085
0.006558
0.006151
0.005903
0.005850
0.006010
0.006381
0.006941
0.007657
0.008500
0.009443
0.010464
0.011549
0.012686
0.013866
0.015081
0.016326
0.017597
0.018890
0.020203
0.021532
0.022874
0.024227
0.025590
0.026961
0.028337
0.029717
0.031099
0.032482
0.033864
0.035245
0.036621
0.037992
0.039357
0.040714
0.042060
0.043396
0.044720
0.046029
0.047323
0.048600
0.049859
0.051098
0.052317
0.053512
0.054685
0.055831
0.056952
0.058043
0.059105
0.060136
0.061134
0.062097
0.063024
0.063914
0.064766
0.065578
0.066349
0.067077
0.067761
0.068400
0.068992
0.069537
0.070033
0.070478
0.070873
0.071215
0.071505
0.071740
0.071921
0.072046
0.072116
0.072128
0.072082
0.071978
0.071815
0.071592
0.071309
0.070966
0.070563
0.070099
0.069574
0.068988
0.068340
0.067632
0.066863
0.066033
0.065143
0.064194
0.063185
0.062118
0.060993
0.059810
0.058537
0.056949
0.054793
0.052045
0.049027
0.046210
0.043184
0.038949
0.033920
0.028909
0.024327
0.020205
0.017271
0.014648
0.016329
0.021098
0.022203
0.025634
0.029310
0.026403
0.025270
0.021707
0.012121
0.004988
0.004468
0.005676
0.006137
0.015364
0.027747
0.032361
0.033845
0.037616
0.032899
0.028426
0.026776
0.019915
0.016453
0.018461
0.020419
0.024298
0.028890
0.033879
0.039018
0.043490
0.046433
0.049059
0.052011
0.054763
0.056952
0.058565
0.059832
0.061005
0.062120
0.063178
0.064177
0.065117
0.065998
0.066819
0.067580
0.068281
0.068921
0.069499
0.070017
0.070474
0.070871
0.071208
0.071484
0.071701
0.071859
0.071958
0.071998
0.071981
0.071908
0.071778
0.071593
0.071354
0.071061
0.070715
0.070318
0.069869
0.069371
0.068825
0.068230
0.067590
0.066905
0.066176
0.065405
0.064593
0.063741
0.062851
0.061925
0.060963
0.059967
0.058939
0.057879
0.056791
0.055674
0.054531
0.053363
0.052172
0.050959
0.049726
0.048473
0.047204
0.045918
0.044617
0.043304
0.041978
0.040643
0.039299
0.037947
0.036590
0.035229
0.033866
0.032502
0.031139
0.029778
0.028421
0.027071
0.025729
0.024396
0.023077
0.021772
0.020484
0.019217
0.017975
0.016760
0.015579
0.014436
0.013338
0.012293
0.011312
0.010407
0.009593
0.008888
0.008311
0.007881
0.007613
0.007512
0.007575
0.007788
0.008127
0.008567
0.009085
0.009658
0.010268
0.010901
0.011545
0.012192
0.012834
0.013466
0.014082
0.014680
0.015256
0.015807
0.016333
0.016830
0.017298
0.017736
0.018142
0.018515
0.018855
0.019161
0.019431
0.019665
0.019862
0.020022
0.020144
0.020227
0.020269
0.020270
0.020229
0.020146
0.020017
0.019844
0.019624
0.019355
0.019037
0.018668
0.018246
0.017772
0.017246
0.016670
0.016048
0.015388
0.014703
0.014011
0.013328
0.012671
0.012045
0.011443
0.010852
0.010253
0.009629
0.008969
0.008263
0.007508
0.006703
0.005849
0.004950
0.004011
0.003040
0.002047
0.001061
0.000431
0.001205
0.002224
0.003260
0.004288
0.005299
0.006284
0.007236
0.008149
0.009016
0.009832
0.010591
0.011288
0.011920
0.012482
0.012970
0.013381
0.013714
0.013965
0.014133
0.014218
0.014218
0.014133
0.013965
0.013714
0.013381
0.012970
0.012482
0.011920
0.011288
0.010591
0.009832
0.009016
0.008149
0.007236
0.006284
0.005299
0.004288
0.003260
0.002224
0.001205
0.000431
0.001061
0.002047
0.003040
0.004011
0.004950
0.005849
0.006703
0.007508
0.008263
0.008969
0.009629
0.010253
0.010852
0.011443
0.012045
0.012671
0.013328
0.014011
0.014703
0.015388
0.016048
0.016670
0.017246
0.017772
0.018246
0.018668
0.019037
0.019355
0.019624
0.019844
0.020017
0.020146
0.020229
0.020270
0.020269
0.020227
0.020144
0.020022
0.019862
0.019665
0.019431
0.019161
0.018855
0.018515
0.018142
0.017736
0.017298
0.016830
0.016333
0.015807
0.015256
0.014680
0.014082
0.013466
0.012834
0.012192
0.011545
0.010901
0.010268
0.009658
0.009085
0.008567
0.008127
0.007788
0.007575
0.007512
0.007613
0.007881
0.008311
0.008888
0.009593
0.010407
0.011312
0.012293
0.013338
0.014436
0.015579
0.016760
0.017975
0.019217
0.020484
0.021772
0.023077
0.024396
0.025729
0.027071
0.028421
0.029778
0.031139
0.032502
0.033866
0.035229
0.036590
0.037947
0.039299
0.040643
0.041978
0.043304
0.044617
0.045918
0.047204
0.048473
0.049726
0.050959
0.052172
0.053363
0.054531
0.055674
0.056791
0.057879
0.058939
0.059967
0.060963
0.061925
0.062851
0.063741
0.064593
0.065405
0.066176
0.066905
0.067590
0.068230
0.068825
0.069371
0.069869
0.070318
0.070715
0.071061
0.071354
0.071593
0.071778
0.071908
0.071981
0.071998
0.071958
0.071859
0.071701
0.071484
0.071208
0.070871
0.070474
0.070017
0.069499
0.068921
0.068281
0.067580
0.066819
0.065998
0.065117
0.064177
0.063178
0.062120
0.061005
0.059832
0.058565
0.056952
0.054763
0.052011
0.049059
0.046433
0.043490
0.039018
0.033879
0.028890
0.024298
0.020419
0.018461
0.016453
0.019915
0.026776
0.028426
0.032899
0.037616
0.033845
0.032361
0.027747
0.015364
0.006137
0.005676
0.006877
0.007324
0.018621
0.033774
0.039422
0.041247
0.045877
0.040124
0.034627
0.032474
0.023623
0.018451
0.019842
0.020682
0.024263
0.028865
0.033827
0.039102
0.043867
0.046708
0.049099
0.051969
0.054727
0.056956
0.058599
0.059859
0.061019
0.062122
0.063168
0.064155
0.065084
0.065954
0.066765
0.067516
0.068206
0.068837
0.069406
0.069915
0.070364
0.070752
0.071081
0.071350
0.071560
0.071710
0.071802
0.071837
0.071814
0.071734
0.071599
0.071410
0.071165
0.070868
0.070518
0.070117
0.069666
0.069165
0.068615
0.068019
0.067377
0.066690
0.065960
0.065188
0.064376
0.063525
0.062635
0.061710
0.060750
0.059756
0.058731
0.057675
0.056590
0.055477
0.054339
0.053177
0.051992
0.050786
0.049560
0.048316
0.047055
0.045780
0.044490
0.043189
0.041877
0.040555
0.039227
0.037892
0.036553
0.035211
0.033869
0.032528
0.031189
0.029855
0.028528
0.027209
0.025902
0.024607
0.023329
0.022069
0.020831
0.019619
0.018437
0.017289
0.016181
0.015119
0.014111
0.013165
0.012291
0.011501
0.010807
0.010222
0.009759
0.009428
0.009234
0.009178
0.009252
0.009445
0.009741
0.010122
0.010570
0.011070
0.011606
0.012168
0.012744
0.013327
0.013909
0.014484
0.015047
0.015596
0.016125
0.016634
0.017119
0.017579
0.018011
0.018415
0.018789
0.019133
0.019444
0.019722
0.019967
0.020177
0.020351
0.020489
0.020590
0.020653
0.020677
0.020660
0.020603
0.020503
0.020359
0.020170
0.019933
0.019648
0.019311
0.018921
0.018474
0.017968
0.017403
0.016777
0.016094
0.015361
0.014593
0.013815
0.013059
0.012354
0.011714
0.011130
0.010575
0.010022
0.009444
0.008826
0.008156
0.007430
0.006648
0.005812
0.004927
0.003999
0.003038
0.002055
0.001089
0.000517
0.001245
0.002250
0.003282
0.004309
0.005320
0.006305
0.007258
0.008172
0.009040
0.009857
0.010618
0.011316
0.011949
0.012512
0.013001
0.013414
0.013747
0.013999
0.014167
0.014252
0.014252
0.014167
0.013999
0.013747
0.013414
0.013001
0.012512
0.011949
0.011316
0.010618
0.009857
0.009040
0.008172
0.007258
0.006305
0.005320
0.004309
0.003282
0.002250
0.001245
0.000517
0.001089
0.002055
0.003038
0.003999
0.004927
0.005812
0.006648
0.007430
0.008156
0.008826
0.009444
0.010022
0.010575
0.011130
0.011714
0.012354
0.013059
0.013815
0.014593
0.015361
0.016094
0.016777
0.017403
0.017968
0.018474
0.018921
0.019311
0.019648
0.019933
0.020170
0.020359
0.020503
0.020603
0.020660
0.020677
0.020653
0.020590
0.020489
0.020351
0.020177
0.019967
0.019722
0.019444
0.019133
0.018789
0.018415
0.018011
0.017579
0.017119
0.016634
0.016125
0.015596
0.015047
0.014484
0.013909
0.013327
0.012744
0.012168
0.011606
0.011070
0.010570
0.010122
0.009741
0.009445
0.009252
0.009178
0.009234
0.009428
0.009759
0.010222
0.010807
0.011501
0.012291
0.013165
0.014111
0.015119
0.016181
0.017289
0.018437
0.019619
0.020831
0.022069
0.023329
0.024607
0.025902
0.027209
0.028528
0.029855
0.031189
0.032528
0.033869
0.035211
0.036553
0.037892
0.039227
0.040555
0.041877
0.043189
0.044490
0.045780
0.047055
0.048316
0.049560
0.050786
0.051992
0.053177
0.054339
0.055477
0.056590
0.057675
0.058731
0.059756
0.060750
0.061710
0.062635
0.063525
0.064376
0.065188
0.065960
0.066690
0.067377
0.068019
0.068615
0.069165
0.069666
0.070117
0.070518
0.070868
0.071165
0.071410
0.071599
0.071734
0.071814
0.071837
0.071802
0.071710
0.071560
0.071350
0.071081
0.070752
0.070364
0.069915
0.069406
0.068837
0.068206
0.067516
0.066765
0.065954
0.065084
0.064155
0.063168
0.062122
0.061019
0.059859
0.058599
0.056956
0.054727
0.051969
0.049099
0.046708
0.043867
0.039102
0.033827
0.028865
0.024263
0.020682
0.019842
0.018451
0.023623
0.032474
0.034627
0.040124
0.045877
0.041247
0.039422
0.033774
0.018621
0.007324
0.006877
0.008063
0.008535
0.021876
0.039770
0.046438
0.048598
0.054081
0.047299
0.040794
0.038165
0.027391
0.020579
0.021374
0.020993
0.024221
0.028836
0.033765
0.039203
0.044313
0.047034
0.049145
0.051918
0.054682
0.056960
0.058639
0.059891
0.061036
0.062124
0.063155
0.064129
0.065044
0.065901
0.066699
0.067438
0.068117
0.068736
0.069294
0.069793
0.070231
0.070610
0.070929
0.071189
0.071390
0.071532
0.071616
0.071643
0.071613
0.071527
0.071385
0.071189
0.070940
0.070637
0.070282
0.069877
0.069421
0.068917
0.068364
0.067765
0.067121
0.066433
0.065701
0.064929
0.064116
0.063265
0.062377
0.061453
0.060494
0.059503
0.058481
0.057429
0.056348
0.055241
0.054109
0.052953
0.051776
0.050578
0.049362
0.048128
0.046879
0.045615
0.044339
0.043052
0.041756
0.040452
0.039141
0.037827
0.036510
0.035191
0.033874
0.032560
0.031251
0.029950
0.028657
0.027376
0.026109
0.024859
0.023629
0.022422
0.021242
0.020093
0.018979
0.017905
0.016878
0.015903
0.014989
0.014143
0.013374
0.012693
0.012107
0.011626
0.011257
0.011004
0.010869
0.010847
0.010933
0.011115
0.011382
0.011720
0.012117
0.012559
0.013036
0.013536
0.014052
0.014576
0.015101
0.015622
0.016133
0.016633
0.017116
0.017580
0.018023
0.018442
0.018837
0.019204
0.019544
0.019855
0.020135
0.020383
0.020599
0.020782
0.020930
0.021044
0.021122
0.021163
0.021166
0.021130
0.021054
0.020936
0.020776
0.020571
0.020318
0.020016
0.019662
0.019251
0.018780
0.018244
0.017639
0.016959
0.016205
0.015380
0.014498
0.013593
0.012718
0.011933
0.011273
0.010719
0.010223
0.009737
0.009224
0.008660
0.008035
0.007345
0.006589
0.005774
0.004904
0.003988
0.003037
0.002066
0.001122
0.000600
0.001289
0.002280
0.003307
0.004332
0.005343
0.006330
0.007284
0.008199
0.009069
0.009887
0.010649
0.011350
0.011984
0.012548
0.013039
0.013452
0.013786
0.014039
0.014208
0.014293
0.014293
0.014208
0.014039
0.013786
0.013452
0.013039
0.012548
0.011984
0.011350
0.010649
0.009887
0.009069
0.008199
0.007284
0.006330
0.005343
0.004332
0.003307
0.002280
0.001289
0.000600
0.001122
0.002066
0.003037
0.003988
0.004904
0.005774
0.006589
0.007345
0.008035
0.008660
0.009224
0.009737
0.010223
0.010719
0.011273
0.011933
0.012718
0.013593
0.014498
0.015380
0.016205
0.016959
0.017639
0.018244
0.018780
0.019251
0.019662
0.020016
0.020318
0.020571
0.020776
0.020936
0.021054
0.021130
0.021166
0.021163
0.021122
0.021044
0.020930
0.020782
0.020599
0.020383
0.020135
0.019855
0.019544
0.019204
0.018837
0.018442
0.018023
0.017580
0.017116
0.016633
0.016133
0.015622
0.015101
0.014576
0.014052
0.013536
0.013036
0.012559
0.012117
0.011720
0.011382
0.011115
0.010933
0.010847
0.010869
0.011004
0.011257
0.011626
0.012107
0.012693
0.013374
0.014143
0.014989
0.015903
0.016878
0.017905
0.018979
0.020093
0.021242
0.022422
0.023629
0.024859
0.026109
0.027376
0.028657
0.029950
0.031251
0.032560
0.033874
0.035191
0.036510
0.037827
0.039141
0.040452
0.041756
0.043052
0.044339
0.045615
0.046879
0.048128
0.049362
0.050578
0.051776
0.052953
0.054109
0.055241
0.056348
0.057429
0.058481
0.059503
0.060494
0.061453
0.062377
0.063265
0.064116
0.064929
0.065701
0.066433
0.067121
0.067765
0.068364
0.068917
0.069421
0.069877
0.070282
0.070637
0.070940
0.071189
0.071385
0.071527
0.071613
0.071643
0.071616
0.071532
0.071390
0.071189
0.070929
0.070610
0.070231
0.069793
0.069294
0.068736
0.068117
0.067438
0.066699
0.065901
0.065044
0.064129
0.063155
0.062124
0.061036
0.059891
0.058639
0.056960
0.054682
0.051918
0.049145
0.047034
0.044313
0.039203
0.033765
0.028836
0.024221
0.020993
0.021374
0.020579
0.027391
0.038165
0.040794
0.047299
0.054081
0.048598
0.046438
0.039770
0.021876
0.008535
0.008063
0.009229
0.009761
0.025118
0.045726
0.053396
0.055885
0.062219
0.054416
0.046914
0.043831
0.031183
0.022793
0.023022
0.021347
0.024171
0.028801
0.033693
0.039318
0.044823
0.047409
0.049198
0.051857
0.054629
0.056964
0.058684
0.059926
0.061054
0.062125
0.063140
0.064098
0.064998
0.065840
0.066623
0.067348
0.068013
0.068618
0.069164
0.069650
0.070077
0.070444
0.070753
0.071002
0.071192
0.071325
0.071400
0.071417
0.071379
0.071285
0.071136
0.070933
0.070676
0.070367
0.070007
0.069596
0.069136
0.068628
0.068072
0.067470
0.066823
0.066133
0.065400
0.064626
0.063813
0.062963
0.062075
0.061152
0.060196
0.059208
0.058190
0.057142
0.056067
0.054966
0.053841
0.052693
0.051525
0.050337
0.049132
0.047910
0.046674
0.045425
0.044164
0.042894
0.041617
0.040332
0.039044
0.037753
0.036461
0.035170
0.033883
0.032601
0.031326
0.030061
0.028809
0.027572
0.026352
0.025152
0.023977
0.022830
0.021713
0.020633
0.019594
0.018600
0.017658
0.016774
0.015955
0.015208
0.014540
0.013958
0.013469
0.013078
0.012788
0.012600
0.012512
0.012520
0.012617
0.012794
0.013042
0.013349
0.013706
0.014103
0.014530
0.014979
0.015443
0.015914
0.016387
0.016858
0.017320
0.017772
0.018209
0.018629
0.019030
0.019408
0.019763
0.020093
0.020397
0.020673
0.020920
0.021136
0.021322
0.021476
0.021597
0.021684
0.021737
0.021755
0.021736
0.021679
0.021584
0.021449
0.021271
0.021050
0.020783
0.020467
0.020098
0.019671
0.019181
0.018620
0.017980
0.017251
0.016424
0.015493
0.014463
0.013370
0.012296
0.011369
0.010680
0.010185
0.009786
0.009400
0.008974
0.008480
0.007909
0.007258
0.006533
0.005739
0.004885
0.003981
0.003040
0.002080
0.001159
0.000680
0.001336
0.002312
0.003334
0.004359
0.005370
0.006357
0.007313
0.008230
0.009102
0.009922
0.010686
0.011389
0.012025
0.012591
0.013083
0.013497
0.013832
0.014085
0.014255
0.014340
0.014340
0.014255
0.014085
0.013832
0.013497
0.013083
0.012591
0.012025
0.011389
0.010686
0.009922
0.009102
0.008230
0.007313
0.006357
0.005370
0.004359
0.003334
0.002312
0.001336
0.000680
0.001159
0.002080
0.003040
0.003981
0.004885
0.005739
0.006533
0.007258
0.007909
0.008480
0.008974
0.009400
0.009786
0.010185
0.010680
0.011369
0.012296
0.013370
0.014463
0.015493
0.016424
0.017251
0.017980
0.018620
0.019181
0.019671
0.020098
0.020467
0.020783
0.021050
0.021271
0.021449
0.021584
0.021679
0.021736
0.021755
0.021737
0.021684
0.021597
0.021476
0.021322
0.021136
0.020920
0.020673
0.020397
0.020093
0.019763
0.019408
0.019030
0.018629
0.018209
0.017772
0.017320
0.016858
0.016387
0.015914
0.015443
0.014979
0.014530
0.014103
0.013706
0.013349
0.013042
0.012794
0.012617
0.012520
0.012512
0.012600
0.012788
0.013078
0.013469
0.013958
0.014540
0.015208
0.015955
0.016774
0.017658
0.018600
0.019594
0.020633
0.021713
0.022830
0.023977
0.025152
0.026352
0.027572
0.028809
0.030061
0.031326
0.032601
0.033883
0.035170
0.036461
0.037753
0.039044
0.040332
0.041617
0.042894
0.044164
0.045425
0.046674
0.047910
0.049132
0.050337
0.051525
0.052693
0.053841
0.054966
0.056067
0.057142
0.058190
0.059208
0.060196
0.061152
0.062075
0.062963
0.063813
0.064626
0.065400
0.066133
0.066823
0.067470
0.068072
0.068628
0.069136
0.069596
0.070007
0.070367
0.070676
0.070933
0.071136
0.071285
0.071379
0.071417
0.071400
0.071325
0.071192
0.071002
0.070753
0.070444
0.070077
0.069650
0.069164
0.068618
0.068013
0.067348
0.066623
0.065840
0.064998
0.064098
0.063140
0.062125
0.061054
0.059926
0.058684
0.056964
0.054629
0.051857
0.049198
0.047409
0.044823
0.039318
0.033693
0.028801
0.024171
0.021347
0.023022
0.022793
0.031183
0.043831
0.046914
0.054416
0.062219
0.055885
0.053396
0.045726
0.025118
0.009761
0.009229
0.010371
0.010999
0.028343
0.051633
0.060288
0.063098
0.070280
0.061465
0.052981
0.049462
0.034979
0.025062
0.024757
0.021743
0.024115
0.028762
0.033610
0.039447
0.045394
0.047829
0.049257
0.051788
0.054568
0.056967
0.058734
0.059965
0.061073
0.062125
0.063122
0.064061
0.064944
0.065769
0.066536
0.067244
0.067893
0.068484
0.069015
0.069488
0.069901
0.070255
0.070551
0.070788
0.070967
0.071088
0.071152
0.071160
0.071112
0.071008
0.070851
0.070639
0.070375
0.070060
0.069693
0.069276
0.068811
0.068298
0.067738
0.067132
0.066482
0.065790
0.065055
0.064281
0.063468
0.062617
0.061731
0.060810
0.059857
0.058872
0.057858
0.056816
0.055747
0.054653
0.053536
0.052397
0.051239
0.050063
0.048870
0.047662
0.046441
0.045209
0.043966
0.042716
0.041460
0.040199
0.038935
0.037671
0.036408
0.035149
0.033895
0.032649
0.031414
0.030192
0.028985
0.027796
0.026629
0.025486
0.024372
0.023289
0.022243
0.021237
0.020277
0.019367
0.018513
0.017720
0.016995
0.016343
0.015770